s 1.000000000 _0_ AGT  --- 0 tcp 40 [0 0 0 0] ------- [0:0 3:0 32 0] [0 0] 0 0
r 1.000000000 _0_ RTR  --- 0 tcp 40 [0 0 0 0] ------- [0:0 3:0 32 0] [0 0] 0 0
s 1.000000000 _2_ AGT  --- 1 cbr 1000 [0 0 0 0] ------- [2:0 5:0 32 0] [0] 0 0
r 1.000000000 _2_ RTR  --- 1 cbr 1000 [0 0 0 0] ------- [2:0 5:0 32 0] [0] 0 0
s 1.000000000 _0_ RTR  --- 0 AODV 48 [0 0 0 0] ------- [0:255 -1:255 30 0] [0x2 1 1 [3 0] [0 4]] (REQUEST)
s 1.000000000 _2_ RTR  --- 0 AODV 48 [0 0 0 0] ------- [2:255 -1:255 30 0] [0x2 1 1 [5 0] [2 4]] (REQUEST)
s 1.000115000 _0_ MAC  --- 0 AODV 106 [0 ffffffff 0 800] ------- [0:255 -1:255 30 0] [0x2 1 1 [3 0] [0 4]] (REQUEST)
r 1.000963758 _1_ MAC  --- 0 AODV 48 [0 ffffffff 0 800] ------- [0:255 -1:255 30 0] [0x2 1 1 [3 0] [0 4]] (REQUEST)
r 1.000988758 _1_ RTR  --- 0 AODV 48 [0 ffffffff 0 800] ------- [0:255 -1:255 30 0] [0x2 1 1 [3 0] [0 4]] (REQUEST)
s 1.001898053 _2_ MAC  --- 0 AODV 106 [0 ffffffff 2 800] ------- [2:255 -1:255 30 0] [0x2 1 1 [5 0] [2 4]] (REQUEST)
r 1.002746795 _1_ MAC  --- 0 AODV 48 [0 ffffffff 2 800] ------- [2:255 -1:255 30 0] [0x2 1 1 [5 0] [2 4]] (REQUEST)
r 1.002771795 _1_ RTR  --- 0 AODV 48 [0 ffffffff 2 800] ------- [2:255 -1:255 30 0] [0x2 1 1 [5 0] [2 4]] (REQUEST)
s 1.005400492 _1_ RTR  --- 0 AODV 48 [0 ffffffff 0 800] ------- [1:255 -1:255 29 0] [0x2 2 1 [3 0] [0 4]] (REQUEST)
s 1.005675492 _1_ MAC  --- 0 AODV 106 [0 ffffffff 1 800] ------- [1:255 -1:255 29 0] [0x2 2 1 [3 0] [0 4]] (REQUEST)
s 1.005901413 _1_ RTR  --- 0 AODV 48 [0 ffffffff 2 800] ------- [1:255 -1:255 29 0] [0x2 2 1 [5 0] [2 4]] (REQUEST)
r 1.006524160 _6_ MAC  --- 0 AODV 48 [0 ffffffff 1 800] ------- [1:255 -1:255 29 0] [0x2 2 1 [3 0] [0 4]] (REQUEST)
r 1.006524234 _2_ MAC  --- 0 AODV 48 [0 ffffffff 1 800] ------- [1:255 -1:255 29 0] [0x2 2 1 [3 0] [0 4]] (REQUEST)
r 1.006524250 _0_ MAC  --- 0 AODV 48 [0 ffffffff 1 800] ------- [1:255 -1:255 29 0] [0x2 2 1 [3 0] [0 4]] (REQUEST)
r 1.006549160 _6_ RTR  --- 0 AODV 48 [0 ffffffff 1 800] ------- [1:255 -1:255 29 0] [0x2 2 1 [3 0] [0 4]] (REQUEST)
r 1.006549234 _2_ RTR  --- 0 AODV 48 [0 ffffffff 1 800] ------- [1:255 -1:255 29 0] [0x2 2 1 [3 0] [0 4]] (REQUEST)
r 1.006549250 _0_ RTR  --- 0 AODV 48 [0 ffffffff 1 800] ------- [1:255 -1:255 29 0] [0x2 2 1 [3 0] [0 4]] (REQUEST)
s 1.006813492 _1_ MAC  --- 0 AODV 106 [0 ffffffff 1 800] ------- [1:255 -1:255 29 0] [0x2 2 1 [5 0] [2 4]] (REQUEST)
r 1.007662160 _6_ MAC  --- 0 AODV 48 [0 ffffffff 1 800] ------- [1:255 -1:255 29 0] [0x2 2 1 [5 0] [2 4]] (REQUEST)
r 1.007662234 _2_ MAC  --- 0 AODV 48 [0 ffffffff 1 800] ------- [1:255 -1:255 29 0] [0x2 2 1 [5 0] [2 4]] (REQUEST)
r 1.007662250 _0_ MAC  --- 0 AODV 48 [0 ffffffff 1 800] ------- [1:255 -1:255 29 0] [0x2 2 1 [5 0] [2 4]] (REQUEST)
r 1.007687160 _6_ RTR  --- 0 AODV 48 [0 ffffffff 1 800] ------- [1:255 -1:255 29 0] [0x2 2 1 [5 0] [2 4]] (REQUEST)
r 1.007687234 _2_ RTR  --- 0 AODV 48 [0 ffffffff 1 800] ------- [1:255 -1:255 29 0] [0x2 2 1 [5 0] [2 4]] (REQUEST)
r 1.007687250 _0_ RTR  --- 0 AODV 48 [0 ffffffff 1 800] ------- [1:255 -1:255 29 0] [0x2 2 1 [5 0] [2 4]] (REQUEST)
s 1.008000000 _2_ AGT  --- 2 cbr 1000 [0 0 0 0] ------- [2:0 5:0 32 0] [1] 0 0
r 1.008000000 _2_ RTR  --- 2 cbr 1000 [0 0 0 0] ------- [2:0 5:0 32 0] [1] 0 0
s 1.008115196 _0_ RTR  --- 0 AODV 48 [0 ffffffff 1 800] ------- [0:255 -1:255 28 0] [0x2 3 1 [5 0] [2 4]] (REQUEST)
s 1.008350196 _0_ MAC  --- 0 AODV 106 [0 ffffffff 0 800] ------- [0:255 -1:255 28 0] [0x2 3 1 [5 0] [2 4]] (REQUEST)
r 1.009198954 _1_ MAC  --- 0 AODV 48 [0 ffffffff 0 800] ------- [0:255 -1:255 28 0] [0x2 3 1 [5 0] [2 4]] (REQUEST)
r 1.009223954 _1_ RTR  --- 0 AODV 48 [0 ffffffff 0 800] ------- [0:255 -1:255 28 0] [0x2 3 1 [5 0] [2 4]] (REQUEST)
s 1.009328614 _6_ RTR  --- 0 AODV 48 [0 ffffffff 1 800] ------- [6:255 -1:255 28 0] [0x2 3 1 [5 0] [2 4]] (REQUEST)
s 1.009640025 _2_ RTR  --- 0 AODV 48 [0 ffffffff 1 800] ------- [2:255 -1:255 28 0] [0x2 3 1 [3 0] [0 4]] (REQUEST)
s 1.009853620 _6_ MAC  --- 0 AODV 106 [0 ffffffff 6 800] ------- [6:255 -1:255 28 0] [0x2 3 1 [5 0] [2 4]] (REQUEST)
r 1.010702289 _1_ MAC  --- 0 AODV 48 [0 ffffffff 6 800] ------- [6:255 -1:255 28 0] [0x2 3 1 [5 0] [2 4]] (REQUEST)
r 1.010702345 _4_ MAC  --- 0 AODV 48 [0 ffffffff 6 800] ------- [6:255 -1:255 28 0] [0x2 3 1 [5 0] [2 4]] (REQUEST)
r 1.010727289 _1_ RTR  --- 0 AODV 48 [0 ffffffff 6 800] ------- [6:255 -1:255 28 0] [0x2 3 1 [5 0] [2 4]] (REQUEST)
r 1.010727345 _4_ RTR  --- 0 AODV 48 [0 ffffffff 6 800] ------- [6:255 -1:255 28 0] [0x2 3 1 [5 0] [2 4]] (REQUEST)
s 1.011156570 _2_ MAC  --- 0 AODV 106 [0 ffffffff 2 800] ------- [2:255 -1:255 28 0] [0x2 3 1 [3 0] [0 4]] (REQUEST)
s 1.011668734 _4_ RTR  --- 0 AODV 48 [0 ffffffff 6 800] ------- [4:255 -1:255 27 0] [0x2 4 1 [5 0] [2 4]] (REQUEST)
r 1.012005312 _1_ MAC  --- 0 AODV 48 [0 ffffffff 2 800] ------- [2:255 -1:255 28 0] [0x2 3 1 [3 0] [0 4]] (REQUEST)
r 1.012030312 _1_ RTR  --- 0 AODV 48 [0 ffffffff 2 800] ------- [2:255 -1:255 28 0] [0x2 3 1 [3 0] [0 4]] (REQUEST)
s 1.012739569 _4_ MAC  --- 0 AODV 106 [0 ffffffff 4 800] ------- [4:255 -1:255 27 0] [0x2 4 1 [5 0] [2 4]] (REQUEST)
s 1.012937812 _6_ RTR  --- 0 AODV 48 [0 ffffffff 1 800] ------- [6:255 -1:255 28 0] [0x2 3 1 [3 0] [0 4]] (REQUEST)
r 1.013588294 _6_ MAC  --- 0 AODV 48 [0 ffffffff 4 800] ------- [4:255 -1:255 27 0] [0x2 4 1 [5 0] [2 4]] (REQUEST)
r 1.013588329 _3_ MAC  --- 0 AODV 48 [0 ffffffff 4 800] ------- [4:255 -1:255 27 0] [0x2 4 1 [5 0] [2 4]] (REQUEST)
r 1.013588363 _5_ MAC  --- 0 AODV 48 [0 ffffffff 4 800] ------- [4:255 -1:255 27 0] [0x2 4 1 [5 0] [2 4]] (REQUEST)
r 1.013613294 _6_ RTR  --- 0 AODV 48 [0 ffffffff 4 800] ------- [4:255 -1:255 27 0] [0x2 4 1 [5 0] [2 4]] (REQUEST)
r 1.013613329 _3_ RTR  --- 0 AODV 48 [0 ffffffff 4 800] ------- [4:255 -1:255 27 0] [0x2 4 1 [5 0] [2 4]] (REQUEST)
r 1.013613363 _5_ RTR  --- 0 AODV 48 [0 ffffffff 4 800] ------- [4:255 -1:255 27 0] [0x2 4 1 [5 0] [2 4]] (REQUEST)
s 1.013613363 _5_ RTR  --- 0 AODV 44 [0 0 0 0] ------- [5:255 2:255 30 4] [0x4 1 [5 4] 10.000000] (REPLY)
s 1.013858294 _6_ MAC  --- 0 AODV 106 [0 ffffffff 6 800] ------- [6:255 -1:255 28 0] [0x2 3 1 [3 0] [0 4]] (REQUEST)
r 1.014706962 _1_ MAC  --- 0 AODV 48 [0 ffffffff 6 800] ------- [6:255 -1:255 28 0] [0x2 3 1 [3 0] [0 4]] (REQUEST)
r 1.014707019 _4_ MAC  --- 0 AODV 48 [0 ffffffff 6 800] ------- [6:255 -1:255 28 0] [0x2 3 1 [3 0] [0 4]] (REQUEST)
r 1.014731962 _1_ RTR  --- 0 AODV 48 [0 ffffffff 6 800] ------- [6:255 -1:255 28 0] [0x2 3 1 [3 0] [0 4]] (REQUEST)
r 1.014732019 _4_ RTR  --- 0 AODV 48 [0 ffffffff 6 800] ------- [6:255 -1:255 28 0] [0x2 3 1 [3 0] [0 4]] (REQUEST)
s 1.015381773 _5_ MAC  --- 0 ARP 86 [0 ffffffff 5 806] ------- [REQUEST 5/5 0/4]
s 1.016000000 _2_ AGT  --- 3 cbr 1000 [0 0 0 0] ------- [2:0 5:0 32 0] [2] 0 0
r 1.016000000 _2_ RTR  --- 3 cbr 1000 [0 0 0 0] ------- [2:0 5:0 32 0] [2] 0 0
r 1.016070568 _4_ MAC  --- 0 ARP 28 [0 ffffffff 5 806] ------- [REQUEST 5/5 0/4]
s 1.016665568 _4_ MAC  --- 0 RTS 44 [52e 5 4 0] 
r 1.017018363 _5_ MAC  --- 0 RTS 44 [52e 5 4 0] 
s 1.017028363 _5_ MAC  --- 0 CTS 38 [3f4 4 0 0] 
r 1.017333158 _4_ MAC  --- 0 CTS 38 [3f4 4 0 0] 
s 1.017343158 _4_ MAC  --- 0 ARP 86 [13a 5 4 806] ------- [REPLY 4/4 5/5]
r 1.018031952 _5_ MAC  --- 0 ARP 28 [13a 5 4 806] ------- [REPLY 4/4 5/5]
s 1.018041952 _5_ MAC  --- 0 ACK 38 [0 4 0 0] 
r 1.018346747 _4_ MAC  --- 0 ACK 38 [0 4 0 0] 
s 1.018755952 _5_ MAC  --- 0 RTS 44 [5ae 4 5 0] 
s 1.018799817 _3_ RTR  --- 0 AODV 48 [0 ffffffff 4 800] ------- [3:255 -1:255 26 0] [0x2 5 1 [5 0] [2 4]] (REQUEST)
r 1.019108747 _4_ MAC  --- 0 RTS 44 [5ae 4 5 0] 
s 1.019118747 _4_ MAC  --- 0 CTS 38 [474 5 0 0] 
r 1.019423542 _5_ MAC  --- 0 CTS 38 [474 5 0 0] 
s 1.019433542 _5_ MAC  --- 0 AODV 102 [13a 4 5 800] ------- [5:255 2:255 30 4] [0x4 1 [5 4] 10.000000] (REPLY)
r 1.020250337 _4_ MAC  --- 0 AODV 44 [13a 4 5 800] ------- [5:255 2:255 30 4] [0x4 1 [5 4] 10.000000] (REPLY)
s 1.020260337 _4_ MAC  --- 0 ACK 38 [0 5 0 0] 
r 1.020275337 _4_ RTR  --- 0 AODV 44 [13a 4 5 800] ------- [5:255 2:255 30 4] [0x4 1 [5 4] 10.000000] (REPLY)
f 1.020275337 _4_ RTR  --- 0 AODV 44 [13a 4 5 800] ------- [5:255 2:255 29 6] [0x4 2 [5 4] 10.000000] (REPLY)
r 1.020565132 _5_ MAC  --- 0 ACK 38 [0 5 0 0] 
s 1.020964543 _3_ MAC  --- 0 AODV 106 [0 ffffffff 3 800] ------- [3:255 -1:255 26 0] [0x2 5 1 [5 0] [2 4]] (REQUEST)
r 1.021813304 _4_ MAC  --- 0 AODV 48 [0 ffffffff 3 800] ------- [3:255 -1:255 26 0] [0x2 5 1 [5 0] [2 4]] (REQUEST)
r 1.021838304 _4_ RTR  --- 0 AODV 48 [0 ffffffff 3 800] ------- [3:255 -1:255 26 0] [0x2 5 1 [5 0] [2 4]] (REQUEST)
s 1.021883304 _4_ MAC  --- 0 ARP 86 [0 ffffffff 4 806] ------- [REQUEST 4/4 0/6]
r 1.022572029 _6_ MAC  --- 0 ARP 28 [0 ffffffff 4 806] ------- [REQUEST 4/4 0/6]
r 1.022572064 _3_ MAC  --- 0 ARP 28 [0 ffffffff 4 806] ------- [REQUEST 4/4 0/6]
r 1.022572099 _5_ MAC  --- 0 ARP 28 [0 ffffffff 4 806] ------- [REQUEST 4/4 0/6]
s 1.022827029 _6_ MAC  --- 0 RTS 44 [52e 4 6 0] 
r 1.023179754 _4_ MAC  --- 0 RTS 44 [52e 4 6 0] 
s 1.023189754 _4_ MAC  --- 0 CTS 38 [3f4 6 0 0] 
s 1.023352692 _4_ RTR  --- 0 AODV 48 [0 ffffffff 6 800] ------- [4:255 -1:255 27 0] [0x2 4 1 [3 0] [0 4]] (REQUEST)
r 1.023494479 _6_ MAC  --- 0 CTS 38 [3f4 6 0 0] 
s 1.023504479 _6_ MAC  --- 0 ARP 86 [13a 4 6 806] ------- [REPLY 6/6 4/4]
s 1.024000000 _2_ AGT  --- 4 cbr 1000 [0 0 0 0] ------- [2:0 5:0 32 0] [3] 0 0
r 1.024000000 _2_ RTR  --- 4 cbr 1000 [0 0 0 0] ------- [2:0 5:0 32 0] [3] 0 0
r 1.024193204 _4_ MAC  --- 0 ARP 28 [13a 4 6 806] ------- [REPLY 6/6 4/4]
s 1.024203204 _4_ MAC  --- 0 ACK 38 [0 6 0 0] 
r 1.024507929 _6_ MAC  --- 0 ACK 38 [0 6 0 0] 
s 1.024637204 _4_ MAC  --- 0 AODV 106 [0 ffffffff 4 800] ------- [4:255 -1:255 27 0] [0x2 4 1 [3 0] [0 4]] (REQUEST)
r 1.025485929 _6_ MAC  --- 0 AODV 48 [0 ffffffff 4 800] ------- [4:255 -1:255 27 0] [0x2 4 1 [3 0] [0 4]] (REQUEST)
r 1.025485965 _3_ MAC  --- 0 AODV 48 [0 ffffffff 4 800] ------- [4:255 -1:255 27 0] [0x2 4 1 [3 0] [0 4]] (REQUEST)
r 1.025485999 _5_ MAC  --- 0 AODV 48 [0 ffffffff 4 800] ------- [4:255 -1:255 27 0] [0x2 4 1 [3 0] [0 4]] (REQUEST)
r 1.025510929 _6_ RTR  --- 0 AODV 48 [0 ffffffff 4 800] ------- [4:255 -1:255 27 0] [0x2 4 1 [3 0] [0 4]] (REQUEST)
r 1.025510965 _3_ RTR  --- 0 AODV 48 [0 ffffffff 4 800] ------- [4:255 -1:255 27 0] [0x2 4 1 [3 0] [0 4]] (REQUEST)
s 1.025510965 _3_ RTR  --- 0 AODV 44 [0 0 0 0] ------- [3:255 0:255 30 4] [0x4 1 [3 4] 10.000000] (REPLY)
r 1.025510999 _5_ RTR  --- 0 AODV 48 [0 ffffffff 4 800] ------- [4:255 -1:255 27 0] [0x2 4 1 [3 0] [0 4]] (REQUEST)
s 1.025785965 _3_ MAC  --- 0 RTS 44 [5ae 4 3 0] 
r 1.026138725 _4_ MAC  --- 0 RTS 44 [5ae 4 3 0] 
s 1.026148725 _4_ MAC  --- 0 CTS 38 [474 3 0 0] 
r 1.026453485 _3_ MAC  --- 0 CTS 38 [474 3 0 0] 
s 1.026463485 _3_ MAC  --- 0 AODV 102 [13a 4 3 800] ------- [3:255 0:255 30 4] [0x4 1 [3 4] 10.000000] (REPLY)
r 1.027280246 _4_ MAC  --- 0 AODV 44 [13a 4 3 800] ------- [3:255 0:255 30 4] [0x4 1 [3 4] 10.000000] (REPLY)
s 1.027290246 _4_ MAC  --- 0 ACK 38 [0 3 0 0] 
r 1.027305246 _4_ RTR  --- 0 AODV 44 [13a 4 3 800] ------- [3:255 0:255 30 4] [0x4 1 [3 4] 10.000000] (REPLY)
f 1.027305246 _4_ RTR  --- 0 AODV 44 [13a 4 3 800] ------- [3:255 0:255 29 6] [0x4 2 [3 4] 10.000000] (REPLY)
r 1.027595006 _3_ MAC  --- 0 ACK 38 [0 3 0 0] 
s 1.027924246 _4_ MAC  --- 0 RTS 44 [5ae 6 4 0] 
r 1.028276971 _6_ MAC  --- 0 RTS 44 [5ae 6 4 0] 
s 1.028286971 _6_ MAC  --- 0 CTS 38 [474 4 0 0] 
r 1.028591696 _4_ MAC  --- 0 CTS 38 [474 4 0 0] 
s 1.028601696 _4_ MAC  --- 0 AODV 102 [13a 6 4 800] ------- [5:255 2:255 29 6] [0x4 2 [5 4] 10.000000] (REPLY)
r 1.029418421 _6_ MAC  --- 0 AODV 44 [13a 6 4 800] ------- [5:255 2:255 29 6] [0x4 2 [5 4] 10.000000] (REPLY)
s 1.029428421 _6_ MAC  --- 0 ACK 38 [0 4 0 0] 
r 1.029443421 _6_ RTR  --- 0 AODV 44 [13a 6 4 800] ------- [5:255 2:255 29 6] [0x4 2 [5 4] 10.000000] (REPLY)
f 1.029443421 _6_ RTR  --- 0 AODV 44 [13a 6 4 800] ------- [5:255 2:255 28 1] [0x4 3 [5 4] 10.000000] (REPLY)
r 1.029733146 _4_ MAC  --- 0 ACK 38 [0 4 0 0] 
s 1.029842421 _6_ MAC  --- 0 ARP 86 [0 ffffffff 6 806] ------- [REQUEST 6/6 0/1]
r 1.030531089 _1_ MAC  --- 0 ARP 28 [0 ffffffff 6 806] ------- [REQUEST 6/6 0/1]
r 1.030531146 _4_ MAC  --- 0 ARP 28 [0 ffffffff 6 806] ------- [REQUEST 6/6 0/1]
s 1.030661146 _4_ MAC  --- 0 RTS 44 [5ae 6 4 0] 
r 1.031013871 _6_ MAC  --- 0 RTS 44 [5ae 6 4 0] 
s 1.031023871 _6_ MAC  --- 0 CTS 38 [474 4 0 0] 
r 1.031328596 _4_ MAC  --- 0 CTS 38 [474 4 0 0] 
s 1.031338596 _4_ MAC  --- 0 AODV 102 [13a 6 4 800] ------- [3:255 0:255 29 6] [0x4 2 [3 4] 10.000000] (REPLY)
s 1.032000000 _2_ AGT  --- 5 cbr 1000 [0 0 0 0] ------- [2:0 5:0 32 0] [4] 0 0
r 1.032000000 _2_ RTR  --- 5 cbr 1000 [0 0 0 0] ------- [2:0 5:0 32 0] [4] 0 0
r 1.032155321 _6_ MAC  --- 0 AODV 44 [13a 6 4 800] ------- [3:255 0:255 29 6] [0x4 2 [3 4] 10.000000] (REPLY)
s 1.032165321 _6_ MAC  --- 0 ACK 38 [0 4 0 0] 
r 1.032180321 _6_ RTR  --- 0 AODV 44 [13a 6 4 800] ------- [3:255 0:255 29 6] [0x4 2 [3 4] 10.000000] (REPLY)
f 1.032180321 _6_ RTR  --- 0 AODV 44 [13a 6 4 800] ------- [3:255 0:255 28 1] [0x4 3 [3 4] 10.000000] (REPLY)
D 1.032180321 _6_ IFQ  ARP 0 AODV 44 [13a 6 6 800] ------- [5:255 2:255 28 1] [0x4 3 [5 4] 10.000000] (REPLY)
r 1.032470046 _4_ MAC  --- 0 ACK 38 [0 4 0 0] 
s 1.032779321 _6_ MAC  --- 0 ARP 86 [0 ffffffff 6 806] ------- [REQUEST 6/6 0/1]
r 1.033467989 _1_ MAC  --- 0 ARP 28 [0 ffffffff 6 806] ------- [REQUEST 6/6 0/1]
r 1.033468046 _4_ MAC  --- 0 ARP 28 [0 ffffffff 6 806] ------- [REQUEST 6/6 0/1]
s 1.033757989 _1_ MAC  --- 0 RTS 44 [52e 6 1 0] 
r 1.034110658 _6_ MAC  --- 0 RTS 44 [52e 6 1 0] 
s 1.034120658 _6_ MAC  --- 0 CTS 38 [3f4 1 0 0] 
r 1.034425326 _1_ MAC  --- 0 CTS 38 [3f4 1 0 0] 
s 1.034435326 _1_ MAC  --- 0 ARP 86 [13a 6 1 806] ------- [REPLY 1/1 6/6]
s 1.034973648 _5_ RTR  --- 0 AODV 48 [0 ffffffff 4 800] ------- [5:255 -1:255 26 0] [0x2 5 1 [3 0] [0 4]] (REQUEST)
r 1.035123994 _6_ MAC  --- 0 ARP 28 [13a 6 1 806] ------- [REPLY 1/1 6/6]
s 1.035133994 _6_ MAC  --- 0 ACK 38 [0 1 0 0] 
r 1.035438662 _1_ MAC  --- 0 ACK 38 [0 1 0 0] 
s 1.035488662 _1_ MAC  --- 0 RTS 44 [52e 6 1 0] 
r 1.035841331 _6_ MAC  --- 0 RTS 44 [52e 6 1 0] 
s 1.035851331 _6_ MAC  --- 0 CTS 38 [3f4 1 0 0] 
r 1.036155999 _1_ MAC  --- 0 CTS 38 [3f4 1 0 0] 
s 1.036165999 _1_ MAC  --- 0 ARP 86 [13a 6 1 806] ------- [REPLY 1/1 6/6]
s 1.036770810 _5_ MAC  --- 0 AODV 106 [0 ffffffff 5 800] ------- [5:255 -1:255 26 0] [0x2 5 1 [3 0] [0 4]] (REQUEST)
r 1.036854667 _6_ MAC  --- 0 ARP 28 [13a 6 1 806] ------- [REPLY 1/1 6/6]
s 1.036864667 _6_ MAC  --- 0 ACK 38 [0 1 0 0] 
r 1.037169335 _1_ MAC  --- 0 ACK 38 [0 1 0 0] 
D 1.037619605 _4_ MAC  COL 0 AODV 106 [0 ffffffff 5 800] ------- [5:255 -1:255 26 0] [0x2 5 1 [3 0] [0 4]] (REQUEST)
s 1.038514289 _6_ MAC  --- 0 RTS 44 [5ae 1 6 0] 
r 1.038866958 _1_ MAC  --- 0 RTS 44 [5ae 1 6 0] 
s 1.038876958 _1_ MAC  --- 0 CTS 38 [474 6 0 0] 
r 1.039181626 _6_ MAC  --- 0 CTS 38 [474 6 0 0] 
s 1.039191626 _6_ MAC  --- 0 AODV 102 [13a 1 6 800] ------- [3:255 0:255 28 1] [0x4 3 [3 4] 10.000000] (REPLY)
s 1.040000000 _2_ AGT  --- 6 cbr 1000 [0 0 0 0] ------- [2:0 5:0 32 0] [5] 0 0
r 1.040000000 _2_ RTR  --- 6 cbr 1000 [0 0 0 0] ------- [2:0 5:0 32 0] [5] 0 0
r 1.040008294 _1_ MAC  --- 0 AODV 44 [13a 1 6 800] ------- [3:255 0:255 28 1] [0x4 3 [3 4] 10.000000] (REPLY)
s 1.040018294 _1_ MAC  --- 0 ACK 38 [0 6 0 0] 
r 1.040033294 _1_ RTR  --- 0 AODV 44 [13a 1 6 800] ------- [3:255 0:255 28 1] [0x4 3 [3 4] 10.000000] (REPLY)
f 1.040033294 _1_ RTR  --- 0 AODV 44 [13a 1 6 800] ------- [3:255 0:255 27 0] [0x4 4 [3 4] 10.000000] (REPLY)
r 1.040322962 _6_ MAC  --- 0 ACK 38 [0 6 0 0] 
s 1.040532294 _1_ MAC  --- 0 ARP 86 [0 ffffffff 1 806] ------- [REQUEST 1/1 0/0]
r 1.041220962 _6_ MAC  --- 0 ARP 28 [0 ffffffff 1 806] ------- [REQUEST 1/1 0/0]
r 1.041221036 _2_ MAC  --- 0 ARP 28 [0 ffffffff 1 806] ------- [REQUEST 1/1 0/0]
r 1.041221052 _0_ MAC  --- 0 ARP 28 [0 ffffffff 1 806] ------- [REQUEST 1/1 0/0]
s 1.041576052 _0_ MAC  --- 0 RTS 44 [52e 1 0 0] 
r 1.041928811 _1_ MAC  --- 0 RTS 44 [52e 1 0 0] 
s 1.041938811 _1_ MAC  --- 0 CTS 38 [3f4 0 0 0] 
r 1.042243569 _0_ MAC  --- 0 CTS 38 [3f4 0 0 0] 
s 1.042253569 _0_ MAC  --- 0 ARP 86 [13a 1 0 806] ------- [REPLY 0/0 1/1]
r 1.042942327 _1_ MAC  --- 0 ARP 28 [13a 1 0 806] ------- [REPLY 0/0 1/1]
s 1.042952327 _1_ MAC  --- 0 ACK 38 [0 0 0 0] 
r 1.043257086 _0_ MAC  --- 0 ACK 38 [0 0 0 0] 
s 1.043306327 _1_ MAC  --- 0 RTS 44 [5ae 0 1 0] 
r 1.043659086 _0_ MAC  --- 0 RTS 44 [5ae 0 1 0] 
s 1.043669086 _0_ MAC  --- 0 CTS 38 [474 1 0 0] 
r 1.043973844 _1_ MAC  --- 0 CTS 38 [474 1 0 0] 
s 1.043983844 _1_ MAC  --- 0 AODV 102 [13a 0 1 800] ------- [3:255 0:255 27 0] [0x4 4 [3 4] 10.000000] (REPLY)
r 1.044800602 _0_ MAC  --- 0 AODV 44 [13a 0 1 800] ------- [3:255 0:255 27 0] [0x4 4 [3 4] 10.000000] (REPLY)
s 1.044810602 _0_ MAC  --- 0 ACK 38 [0 1 0 0] 
r 1.044825602 _0_ RTR  --- 0 AODV 44 [13a 0 1 800] ------- [3:255 0:255 27 0] [0x4 4 [3 4] 10.000000] (REPLY)
s 1.044825602 _0_ RTR  --- 0 tcp 40 [0 0 0 0] ------- [0:0 3:0 30 1] [0 0] 0 0
r 1.045115361 _1_ MAC  --- 0 ACK 38 [0 1 0 0] 
s 1.045404602 _0_ MAC  --- 0 RTS 44 [58e 1 0 0] 
r 1.045757361 _1_ MAC  --- 0 RTS 44 [58e 1 0 0] 
s 1.045767361 _1_ MAC  --- 0 CTS 38 [454 0 0 0] 
r 1.046072119 _0_ MAC  --- 0 CTS 38 [454 0 0 0] 
s 1.046082119 _0_ MAC  --- 0 tcp 98 [13a 1 0 800] ------- [0:0 3:0 30 1] [0 0] 0 0
r 1.046866877 _1_ MAC  --- 0 tcp 40 [13a 1 0 800] ------- [0:0 3:0 30 1] [0 0] 1 0
s 1.046876877 _1_ MAC  --- 0 ACK 38 [0 0 0 0] 
r 1.046891877 _1_ RTR  --- 0 tcp 40 [13a 1 0 800] ------- [0:0 3:0 30 1] [0 0] 1 0
f 1.046891877 _1_ RTR  --- 0 tcp 40 [13a 1 0 800] ------- [0:0 3:0 29 6] [0 0] 1 0
r 1.047181636 _0_ MAC  --- 0 ACK 38 [0 0 0 0] 
s 1.047310877 _1_ MAC  --- 0 RTS 44 [58e 6 1 0] 
r 1.047663546 _6_ MAC  --- 0 RTS 44 [58e 6 1 0] 
s 1.047673546 _6_ MAC  --- 0 CTS 38 [454 1 0 0] 
r 1.047978214 _1_ MAC  --- 0 CTS 38 [454 1 0 0] 
s 1.047988214 _1_ MAC  --- 0 tcp 98 [13a 6 1 800] ------- [0:0 3:0 29 6] [0 0] 1 0
s 1.048000000 _2_ AGT  --- 7 cbr 1000 [0 0 0 0] ------- [2:0 5:0 32 0] [6] 0 0
r 1.048000000 _2_ RTR  --- 7 cbr 1000 [0 0 0 0] ------- [2:0 5:0 32 0] [6] 0 0
r 1.048772882 _6_ MAC  --- 0 tcp 40 [13a 6 1 800] ------- [0:0 3:0 29 6] [0 0] 2 0
s 1.048782882 _6_ MAC  --- 0 ACK 38 [0 1 0 0] 
r 1.048797882 _6_ RTR  --- 0 tcp 40 [13a 6 1 800] ------- [0:0 3:0 29 6] [0 0] 2 0
f 1.048797882 _6_ RTR  --- 0 tcp 40 [13a 6 1 800] ------- [0:0 3:0 28 4] [0 0] 2 0
r 1.049087550 _1_ MAC  --- 0 ACK 38 [0 1 0 0] 
s 1.049156882 _6_ MAC  --- 0 RTS 44 [58e 4 6 0] 
r 1.049509607 _4_ MAC  --- 0 RTS 44 [58e 4 6 0] 
s 1.049519607 _4_ MAC  --- 0 CTS 38 [454 6 0 0] 
r 1.049824332 _6_ MAC  --- 0 CTS 38 [454 6 0 0] 
s 1.049834332 _6_ MAC  --- 0 tcp 98 [13a 4 6 800] ------- [0:0 3:0 28 4] [0 0] 2 0
r 1.050619057 _4_ MAC  --- 0 tcp 40 [13a 4 6 800] ------- [0:0 3:0 28 4] [0 0] 3 0
s 1.050629057 _4_ MAC  --- 0 ACK 38 [0 6 0 0] 
r 1.050644057 _4_ RTR  --- 0 tcp 40 [13a 4 6 800] ------- [0:0 3:0 28 4] [0 0] 3 0
f 1.050644057 _4_ RTR  --- 0 tcp 40 [13a 4 6 800] ------- [0:0 3:0 27 3] [0 0] 3 0
r 1.050933782 _6_ MAC  --- 0 ACK 38 [0 6 0 0] 
s 1.051223057 _4_ MAC  --- 0 ARP 86 [0 ffffffff 4 806] ------- [REQUEST 4/4 0/3]
r 1.051911782 _6_ MAC  --- 0 ARP 28 [0 ffffffff 4 806] ------- [REQUEST 4/4 0/3]
r 1.051911818 _3_ MAC  --- 0 ARP 28 [0 ffffffff 4 806] ------- [REQUEST 4/4 0/3]
r 1.051911852 _5_ MAC  --- 0 ARP 28 [0 ffffffff 4 806] ------- [REQUEST 4/4 0/3]
s 1.052006818 _3_ MAC  --- 0 RTS 44 [52e 4 3 0] 
r 1.052359578 _4_ MAC  --- 0 RTS 44 [52e 4 3 0] 
s 1.052369578 _4_ MAC  --- 0 CTS 38 [3f4 3 0 0] 
r 1.052674339 _3_ MAC  --- 0 CTS 38 [3f4 3 0 0] 
s 1.052684339 _3_ MAC  --- 0 ARP 86 [13a 4 3 806] ------- [REPLY 3/3 4/4]
r 1.053373099 _4_ MAC  --- 0 ARP 28 [13a 4 3 806] ------- [REPLY 3/3 4/4]
s 1.053383099 _4_ MAC  --- 0 ACK 38 [0 3 0 0] 
r 1.053687859 _3_ MAC  --- 0 ACK 38 [0 3 0 0] 
s 1.053997099 _4_ MAC  --- 0 RTS 44 [58e 3 4 0] 
r 1.054349859 _3_ MAC  --- 0 RTS 44 [58e 3 4 0] 
s 1.054359859 _3_ MAC  --- 0 CTS 38 [454 4 0 0] 
r 1.054664620 _4_ MAC  --- 0 CTS 38 [454 4 0 0] 
s 1.054674620 _4_ MAC  --- 0 tcp 98 [13a 3 4 800] ------- [0:0 3:0 27 3] [0 0] 3 0
r 1.055459380 _3_ MAC  --- 0 tcp 40 [13a 3 4 800] ------- [0:0 3:0 27 3] [0 0] 4 0
s 1.055469380 _3_ MAC  --- 0 ACK 38 [0 4 0 0] 
r 1.055484380 _3_ AGT  --- 0 tcp 40 [13a 3 4 800] ------- [0:0 3:0 27 3] [0 0] 4 0
s 1.055484380 _3_ AGT  --- 8 ack 40 [0 0 0 0] ------- [3:0 0:0 32 0] [0 0] 0 0
r 1.055484380 _3_ RTR  --- 8 ack 40 [0 0 0 0] ------- [3:0 0:0 32 0] [0 0] 0 0
s 1.055484380 _3_ RTR  --- 8 ack 40 [0 0 0 0] ------- [3:0 0:0 30 4] [0 0] 0 0
r 1.055774141 _4_ MAC  --- 0 ACK 38 [0 4 0 0] 
s 1.056000000 _2_ AGT  --- 9 cbr 1000 [0 0 0 0] ------- [2:0 5:0 32 0] [7] 0 0
r 1.056000000 _2_ RTR  --- 9 cbr 1000 [0 0 0 0] ------- [2:0 5:0 32 0] [7] 0 0
s 1.056043380 _3_ MAC  --- 0 RTS 44 [58e 4 3 0] 
r 1.056396141 _4_ MAC  --- 0 RTS 44 [58e 4 3 0] 
s 1.056406141 _4_ MAC  --- 0 CTS 38 [454 3 0 0] 
r 1.056710901 _3_ MAC  --- 0 CTS 38 [454 3 0 0] 
s 1.056720901 _3_ MAC  --- 8 ack 98 [13a 4 3 800] ------- [3:0 0:0 30 4] [0 0] 0 0
r 1.057505661 _4_ MAC  --- 8 ack 40 [13a 4 3 800] ------- [3:0 0:0 30 4] [0 0] 1 0
s 1.057515661 _4_ MAC  --- 0 ACK 38 [0 3 0 0] 
r 1.057530661 _4_ RTR  --- 8 ack 40 [13a 4 3 800] ------- [3:0 0:0 30 4] [0 0] 1 0
f 1.057530661 _4_ RTR  --- 8 ack 40 [13a 4 3 800] ------- [3:0 0:0 29 6] [0 0] 1 0
r 1.057820422 _3_ MAC  --- 0 ACK 38 [0 3 0 0] 
s 1.058069661 _4_ MAC  --- 0 RTS 44 [58e 6 4 0] 
r 1.058422386 _6_ MAC  --- 0 RTS 44 [58e 6 4 0] 
s 1.058432386 _6_ MAC  --- 0 CTS 38 [454 4 0 0] 
r 1.058737112 _4_ MAC  --- 0 CTS 38 [454 4 0 0] 
s 1.058747112 _4_ MAC  --- 8 ack 98 [13a 6 4 800] ------- [3:0 0:0 29 6] [0 0] 1 0
r 1.059531837 _6_ MAC  --- 8 ack 40 [13a 6 4 800] ------- [3:0 0:0 29 6] [0 0] 2 0
s 1.059541837 _6_ MAC  --- 0 ACK 38 [0 4 0 0] 
r 1.059556837 _6_ RTR  --- 8 ack 40 [13a 6 4 800] ------- [3:0 0:0 29 6] [0 0] 2 0
f 1.059556837 _6_ RTR  --- 8 ack 40 [13a 6 4 800] ------- [3:0 0:0 28 1] [0 0] 2 0
r 1.059846562 _4_ MAC  --- 0 ACK 38 [0 4 0 0] 
s 1.059975837 _6_ MAC  --- 0 RTS 44 [58e 1 6 0] 
r 1.060328505 _1_ MAC  --- 0 RTS 44 [58e 1 6 0] 
s 1.060338505 _1_ MAC  --- 0 CTS 38 [454 6 0 0] 
r 1.060643173 _6_ MAC  --- 0 CTS 38 [454 6 0 0] 
s 1.060653173 _6_ MAC  --- 8 ack 98 [13a 1 6 800] ------- [3:0 0:0 28 1] [0 0] 2 0
r 1.061437841 _1_ MAC  --- 8 ack 40 [13a 1 6 800] ------- [3:0 0:0 28 1] [0 0] 3 0
s 1.061447841 _1_ MAC  --- 0 ACK 38 [0 6 0 0] 
r 1.061462841 _1_ RTR  --- 8 ack 40 [13a 1 6 800] ------- [3:0 0:0 28 1] [0 0] 3 0
f 1.061462841 _1_ RTR  --- 8 ack 40 [13a 1 6 800] ------- [3:0 0:0 27 0] [0 0] 3 0
r 1.061752510 _6_ MAC  --- 0 ACK 38 [0 6 0 0] 
s 1.062261841 _1_ MAC  --- 0 RTS 44 [58e 0 1 0] 
r 1.062614600 _0_ MAC  --- 0 RTS 44 [58e 0 1 0] 
s 1.062624600 _0_ MAC  --- 0 CTS 38 [454 1 0 0] 
r 1.062929358 _1_ MAC  --- 0 CTS 38 [454 1 0 0] 
s 1.062939358 _1_ MAC  --- 8 ack 98 [13a 0 1 800] ------- [3:0 0:0 27 0] [0 0] 3 0
r 1.063724116 _0_ MAC  --- 8 ack 40 [13a 0 1 800] ------- [3:0 0:0 27 0] [0 0] 4 0
s 1.063734116 _0_ MAC  --- 0 ACK 38 [0 1 0 0] 
r 1.063749116 _0_ AGT  --- 8 ack 40 [13a 0 1 800] ------- [3:0 0:0 27 0] [0 0] 4 0
s 1.063749116 _0_ AGT  --- 10 tcp 1540 [0 0 0 0] ------- [0:0 3:0 32 0] [1 0] 0 0
r 1.063749116 _0_ RTR  --- 10 tcp 1540 [0 0 0 0] ------- [0:0 3:0 32 0] [1 0] 0 0
s 1.063749116 _0_ AGT  --- 11 tcp 1540 [0 0 0 0] ------- [0:0 3:0 32 0] [2 0] 0 0
r 1.063749116 _0_ RTR  --- 11 tcp 1540 [0 0 0 0] ------- [0:0 3:0 32 0] [2 0] 0 0
s 1.063749116 _0_ RTR  --- 10 tcp 1540 [0 0 0 0] ------- [0:0 3:0 30 1] [1 0] 0 0
s 1.063749116 _0_ RTR  --- 11 tcp 1540 [0 0 0 0] ------- [0:0 3:0 30 1] [2 0] 0 0
s 1.064000000 _2_ AGT  --- 12 cbr 1000 [0 0 0 0] ------- [2:0 5:0 32 0] [8] 0 0
r 1.064000000 _2_ RTR  --- 12 cbr 1000 [0 0 0 0] ------- [2:0 5:0 32 0] [8] 0 0
r 1.064038875 _1_ MAC  --- 0 ACK 38 [0 1 0 0] 
s 1.064148116 _0_ MAC  --- 0 RTS 44 [346e 1 0 0] 
r 1.064500875 _1_ MAC  --- 0 RTS 44 [346e 1 0 0] 
s 1.064510875 _1_ MAC  --- 0 CTS 38 [3334 0 0 0] 
r 1.064815633 _0_ MAC  --- 0 CTS 38 [3334 0 0 0] 
s 1.064825633 _0_ MAC  --- 10 tcp 1598 [13a 1 0 800] ------- [0:0 3:0 30 1] [1 0] 0 0
s 1.072000000 _2_ AGT  --- 13 cbr 1000 [0 0 0 0] ------- [2:0 5:0 32 0] [9] 0 0
r 1.072000000 _2_ RTR  --- 13 cbr 1000 [0 0 0 0] ------- [2:0 5:0 32 0] [9] 0 0
r 1.077610391 _1_ MAC  --- 10 tcp 1540 [13a 1 0 800] ------- [0:0 3:0 30 1] [1 0] 1 0
s 1.077620391 _1_ MAC  --- 0 ACK 38 [0 0 0 0] 
r 1.077635391 _1_ RTR  --- 10 tcp 1540 [13a 1 0 800] ------- [0:0 3:0 30 1] [1 0] 1 0
f 1.077635391 _1_ RTR  --- 10 tcp 1540 [13a 1 0 800] ------- [0:0 3:0 29 6] [1 0] 1 0
r 1.077925150 _0_ MAC  --- 0 ACK 38 [0 0 0 0] 
s 1.078274391 _1_ MAC  --- 0 RTS 44 [346e 6 1 0] 
r 1.078627060 _6_ MAC  --- 0 RTS 44 [346e 6 1 0] 
s 1.078637060 _6_ MAC  --- 0 CTS 38 [3334 1 0 0] 
r 1.078941728 _1_ MAC  --- 0 CTS 38 [3334 1 0 0] 
s 1.078951728 _1_ MAC  --- 10 tcp 1598 [13a 6 1 800] ------- [0:0 3:0 29 6] [1 0] 1 0
s 1.080000000 _2_ AGT  --- 14 cbr 1000 [0 0 0 0] ------- [2:0 5:0 32 0] [10] 0 0
r 1.080000000 _2_ RTR  --- 14 cbr 1000 [0 0 0 0] ------- [2:0 5:0 32 0] [10] 0 0
s 1.088000000 _2_ AGT  --- 15 cbr 1000 [0 0 0 0] ------- [2:0 5:0 32 0] [11] 0 0
r 1.088000000 _2_ RTR  --- 15 cbr 1000 [0 0 0 0] ------- [2:0 5:0 32 0] [11] 0 0
r 1.091736396 _6_ MAC  --- 10 tcp 1540 [13a 6 1 800] ------- [0:0 3:0 29 6] [1 0] 2 0
s 1.091746396 _6_ MAC  --- 0 ACK 38 [0 1 0 0] 
r 1.091761396 _6_ RTR  --- 10 tcp 1540 [13a 6 1 800] ------- [0:0 3:0 29 6] [1 0] 2 0
f 1.091761396 _6_ RTR  --- 10 tcp 1540 [13a 6 1 800] ------- [0:0 3:0 28 4] [1 0] 2 0
r 1.092051064 _1_ MAC  --- 0 ACK 38 [0 1 0 0] 
s 1.092220396 _6_ MAC  --- 0 RTS 44 [346e 4 6 0] 
r 1.092573121 _4_ MAC  --- 0 RTS 44 [346e 4 6 0] 
s 1.092583121 _4_ MAC  --- 0 CTS 38 [3334 6 0 0] 
r 1.092887846 _6_ MAC  --- 0 CTS 38 [3334 6 0 0] 
s 1.092897846 _6_ MAC  --- 10 tcp 1598 [13a 4 6 800] ------- [0:0 3:0 28 4] [1 0] 2 0
s 1.096000000 _2_ AGT  --- 16 cbr 1000 [0 0 0 0] ------- [2:0 5:0 32 0] [12] 0 0
r 1.096000000 _2_ RTR  --- 16 cbr 1000 [0 0 0 0] ------- [2:0 5:0 32 0] [12] 0 0
s 1.104000000 _2_ AGT  --- 17 cbr 1000 [0 0 0 0] ------- [2:0 5:0 32 0] [13] 0 0
r 1.104000000 _2_ RTR  --- 17 cbr 1000 [0 0 0 0] ------- [2:0 5:0 32 0] [13] 0 0
r 1.105682571 _4_ MAC  --- 10 tcp 1540 [13a 4 6 800] ------- [0:0 3:0 28 4] [1 0] 3 0
s 1.105692571 _4_ MAC  --- 0 ACK 38 [0 6 0 0] 
r 1.105707571 _4_ RTR  --- 10 tcp 1540 [13a 4 6 800] ------- [0:0 3:0 28 4] [1 0] 3 0
f 1.105707571 _4_ RTR  --- 10 tcp 1540 [13a 4 6 800] ------- [0:0 3:0 27 3] [1 0] 3 0
r 1.105997296 _6_ MAC  --- 0 ACK 38 [0 6 0 0] 
s 1.106417271 _0_ MAC  --- 0 RTS 44 [346e 1 0 0] 
s 1.106626571 _4_ MAC  --- 0 RTS 44 [346e 3 4 0] 
D 1.106627795 _1_ MAC  COL 0 RTS 44 [346e 1 0 0] 
r 1.106979332 _3_ MAC  --- 0 RTS 44 [346e 3 4 0] 
s 1.106989332 _3_ MAC  --- 0 CTS 38 [3334 4 0 0] 
r 1.107294092 _4_ MAC  --- 0 CTS 38 [3334 4 0 0] 
s 1.107304092 _4_ MAC  --- 10 tcp 1598 [13a 3 4 800] ------- [0:0 3:0 27 3] [1 0] 3 0
s 1.108357271 _0_ MAC  --- 0 RTS 44 [346e 1 0 0] 
D 1.108358029 _1_ MAC  COL 0 RTS 44 [346e 1 0 0] 
s 1.111197271 _0_ MAC  --- 0 RTS 44 [346e 1 0 0] 
D 1.111198029 _1_ MAC  COL 0 RTS 44 [346e 1 0 0] 
s 1.112000000 _2_ AGT  --- 18 cbr 1000 [0 0 0 0] ------- [2:0 5:0 32 0] [14] 0 0
r 1.112000000 _2_ RTR  --- 18 cbr 1000 [0 0 0 0] ------- [2:0 5:0 32 0] [14] 0 0
s 1.112357271 _0_ MAC  --- 0 RTS 44 [346e 1 0 0] 
D 1.112358029 _1_ MAC  COL 0 RTS 44 [346e 1 0 0] 
s 1.119517271 _0_ MAC  --- 0 RTS 44 [346e 1 0 0] 
D 1.119518029 _1_ MAC  COL 0 RTS 44 [346e 1 0 0] 
s 1.120000000 _2_ AGT  --- 19 cbr 1000 [0 0 0 0] ------- [2:0 5:0 32 0] [15] 0 0
r 1.120000000 _2_ RTR  --- 19 cbr 1000 [0 0 0 0] ------- [2:0 5:0 32 0] [15] 0 0
r 1.120088852 _3_ MAC  --- 10 tcp 1540 [13a 3 4 800] ------- [0:0 3:0 27 3] [1 0] 4 0
s 1.120098852 _3_ MAC  --- 0 ACK 38 [0 4 0 0] 
r 1.120113852 _3_ AGT  --- 10 tcp 1540 [13a 3 4 800] ------- [0:0 3:0 27 3] [1 0] 4 0
s 1.120113852 _3_ AGT  --- 20 ack 40 [0 0 0 0] ------- [3:0 0:0 32 0] [1 0] 0 0
r 1.120113852 _3_ RTR  --- 20 ack 40 [0 0 0 0] ------- [3:0 0:0 32 0] [1 0] 0 0
s 1.120113852 _3_ RTR  --- 20 ack 40 [0 0 0 0] ------- [3:0 0:0 30 4] [1 0] 0 0
r 1.120403613 _4_ MAC  --- 0 ACK 38 [0 4 0 0] 
s 1.120752852 _3_ MAC  --- 0 RTS 44 [58e 4 3 0] 
r 1.121105613 _4_ MAC  --- 0 RTS 44 [58e 4 3 0] 
s 1.121115613 _4_ MAC  --- 0 CTS 38 [454 3 0 0] 
r 1.121420373 _3_ MAC  --- 0 CTS 38 [454 3 0 0] 
s 1.121430373 _3_ MAC  --- 20 ack 98 [13a 4 3 800] ------- [3:0 0:0 30 4] [1 0] 0 0
r 1.122215134 _4_ MAC  --- 20 ack 40 [13a 4 3 800] ------- [3:0 0:0 30 4] [1 0] 1 0
s 1.122225134 _4_ MAC  --- 0 ACK 38 [0 3 0 0] 
r 1.122240134 _4_ RTR  --- 20 ack 40 [13a 4 3 800] ------- [3:0 0:0 30 4] [1 0] 1 0
f 1.122240134 _4_ RTR  --- 20 ack 40 [13a 4 3 800] ------- [3:0 0:0 29 6] [1 0] 1 0
r 1.122529894 _3_ MAC  --- 0 ACK 38 [0 3 0 0] 
s 1.122639134 _4_ MAC  --- 0 RTS 44 [58e 6 4 0] 
r 1.122991859 _6_ MAC  --- 0 RTS 44 [58e 6 4 0] 
s 1.123001859 _6_ MAC  --- 0 CTS 38 [454 4 0 0] 
r 1.123306584 _4_ MAC  --- 0 CTS 38 [454 4 0 0] 
s 1.123316584 _4_ MAC  --- 20 ack 98 [13a 6 4 800] ------- [3:0 0:0 29 6] [1 0] 1 0
r 1.124101309 _6_ MAC  --- 20 ack 40 [13a 6 4 800] ------- [3:0 0:0 29 6] [1 0] 2 0
s 1.124111309 _6_ MAC  --- 0 ACK 38 [0 4 0 0] 
r 1.124126309 _6_ RTR  --- 20 ack 40 [13a 6 4 800] ------- [3:0 0:0 29 6] [1 0] 2 0
f 1.124126309 _6_ RTR  --- 20 ack 40 [13a 6 4 800] ------- [3:0 0:0 28 1] [1 0] 2 0
r 1.124416034 _4_ MAC  --- 0 ACK 38 [0 4 0 0] 
s 1.125045309 _6_ MAC  --- 0 RTS 44 [58e 1 6 0] 
r 1.125397977 _1_ MAC  --- 0 RTS 44 [58e 1 6 0] 
s 1.125407977 _1_ MAC  --- 0 CTS 38 [454 6 0 0] 
r 1.125712645 _6_ MAC  --- 0 CTS 38 [454 6 0 0] 
s 1.125722645 _6_ MAC  --- 20 ack 98 [13a 1 6 800] ------- [3:0 0:0 28 1] [1 0] 2 0
r 1.126507314 _1_ MAC  --- 20 ack 40 [13a 1 6 800] ------- [3:0 0:0 28 1] [1 0] 3 0
s 1.126517314 _1_ MAC  --- 0 ACK 38 [0 6 0 0] 
r 1.126532314 _1_ RTR  --- 20 ack 40 [13a 1 6 800] ------- [3:0 0:0 28 1] [1 0] 3 0
f 1.126532314 _1_ RTR  --- 20 ack 40 [13a 1 6 800] ------- [3:0 0:0 27 0] [1 0] 3 0